<?xml version="1.0"?>
<VTKFile type="UnstructuredGrid" version="0.1" byte_order="LittleEndian" compressor="vtkZLibDataCompressor">
  <UnstructuredGrid>
    <Piece NumberOfPoints="48" NumberOfCells="48">
      <PointData Scalars="scalars">
        <DataArray type="Float32" Name="scalars" format="ascii">
          0.500000
          0.333333
          0.333333
          0.000000
          0.166667
          0.166667
          0.000000
          0.500000
          0.500000
          0.000000
          0.000000
          0.000000
          0.000000
          0.333333
          0.000000
          0.000000
          0.166667
          0.333333
          0.500000
          0.500000
          0.500000
          0.500000
          0.500000
          0.333333
          0.333333
          0.166667
          0.333333
          0.166667
          0.000000
          0.333333
          0.333333
          0.500000
          0.333333
          0.500000
          0.166667
          0.500000
          0.500000
          0.333333
          0.000000
          0.333333
          0.166667
          0.000000
          0.000000
          0.166667
          0.166667
          0.000000
          0.000000
          0.000000
          
        </DataArray>
      </PointData>
      <Points>
        <DataArray type="Float32" NumberOfComponents="3" format="ascii">
           0.593333 0.290000 0.500000
           0.650000 0.653333 0.333333
           0.476667 0.323333 0.333333
           0.330000 1.746667 0.000000
           0.416667 0.213333 0.166667
           0.430000 0.833333 0.166667
           0.336667 0.536667 0.000000
           0.720000 0.856667 0.500000
           0.663333 0.940000 0.500000
           0.343333 1.063333 0.000000
           0.256667 0.293333 0.000000
           0.306667 0.150000 0.000000
           0.313333 0.703333 0.000000
           0.546667 1.456667 0.333333
           0.280000 0.403333 0.000000
           0.330000 0.260000 0.000000
           0.450000 0.070000 0.166667
           0.546667 0.100000 0.333333
           0.663333 0.143333 0.500000
           0.650000 0.223333 0.500000
           0.716667 0.373333 0.500000
           0.660000 0.440000 0.500000
           0.746667 0.510000 0.500000
           0.650000 1.223333 0.333333
           0.620000 0.746667 0.333333
           0.446667 0.503333 0.166667
           0.586667 0.573333 0.333333
           0.526667 1.360000 0.166667
           0.316667 1.263333 0.000000
           0.606667 1.070000 0.333333
           0.563333 0.830000 0.333333
           0.723333 1.433333 0.500000
           0.620000 1.376667 0.333333
           0.703333 1.696667 0.500000
           0.500000 1.813333 0.166667
           0.630000 1.606667 0.500000
           0.690000 1.556667 0.500000
           0.600000 1.880000 0.333333
           0.363333 1.826667 0.000000
           0.543333 1.680000 0.333333
           0.460000 1.530000 0.166667
           0.383333 1.583333 0.000000
           0.420000 1.190000 0.000000
           0.486667 1.103333 0.166667
           0.410000 0.976667 0.166667
           0.380000 1.420000 0.000000
           0.436667 1.270000 0.000000
           0.280000 1.476667 0.000000
           
        </DataArray>
      </Points>
      <Cells>
        <DataArray type="Int32" Name="connectivity" format="ascii">
          0
          1
          2
          3
          4
          5
          6
          7
          8
          9
          10
          11
          12
          13
          14
          15
          16
          17
          18
          19
          20
          21
          22
          23
          24
          25
          26
          27
          28
          29
          30
          31
          32
          33
          34
          35
          36
          37
          38
          39
          40
          41
          42
          43
          44
          45
          46
          47
          
        </DataArray>
        <DataArray type="Int32" Name="offsets" format="ascii">
          1 2 3 4 5 6 7 8 9 10 11 12 13 14 15 16 17 18 19 20 21 22 23 24 25 26 27 28 29 30 31 32 33 34 35 36 37 38 39 40 41 42 43 44 45 46 47 48 
        </DataArray>
        <DataArray type="UInt8" Name="types" format="ascii">
          1 1 1 1 1 1 1 1 1 1 1 1 1 1 1 1 1 1 1 1 1 1 1 1 1 1 1 1 1 1 1 1 1 1 1 1 1 1 1 1 1 1 1 1 1 1 1 1 
        </DataArray>
      </Cells>
    <CellData Normals="cell_normals">
      <DataArray type="Float32" Name="cell_normals" NumberOfComponents="3" format="ascii">
          0 0 1
          -0.839342 0.167868 0.517035
          -0.895862 0.0866963 0.435793
          0 0 1
          -0.924871 -0.249004 0.287421
          -0.615457 -0.615457 0.492366
          0 -0 1
          0 0 1
          0 0 1
          0 0 1
          0 0 1
          0 0 1
          0 0 1
          -0.50702 -0.76053 0.405616
          0 0 1
          0 0 1
          -0.410942 0.821884 0.394504
          -0.498419 -0.847312 0.183418
          0 0 1
          0 0 1
          0 0 1
          -0 0 1
          0 0 1
          -0.891771 -0.0685978 0.447257
          -0.750976 -0.45893 0.474783
          -0.851012 0.368772 0.373878
          -0.566847 0.688314 0.452668
          -0.817485 -0.363327 0.446892
          0 0 1
          -0.332292 0.759525 0.5592
          -0.664991 -0.569992 0.482593
          0 0 1
          -0.666209 -0.571036 0.47967
          -0 0 1
          -0.867718 0.0333738 0.495934
          0 0 1
          0 0 1
          -0.856112 0.0951236 0.50796
          0 -0 1
          -0.80046 0.480276 0.358606
          -0.96454 -0.113475 0.238298
          0 0 1
          0 0 1
          -0.761428 0.456857 0.459902
          -0.758336 0.461596 0.460277
          0 0 1
          0 0 1
          0 0 1
          </DataArray>
      </CellData>
      <Cells>
        </Cells>
    </Piece>
  </UnstructuredGrid>
</VTKFile>