<?xml version="1.0"?>
<VTKFile type="UnstructuredGrid" version="0.1" byte_order="LittleEndian" compressor="vtkZLibDataCompressor">
  <UnstructuredGrid>
    <Piece NumberOfPoints="30" NumberOfCells="48">
      <PointData Scalars="scalars">
        <DataArray type="Float32" Name="scalars" format="ascii">
          0
          0
          0
          0
          0
          0
          0
          0.5
          0.5
          0.5
          0.5
          0.5
          0.5
          0.5
          0.5
          0.5
          0
          0
          0.5
          0.5
          0.5
          0
          0
          0.5
          0
          0.5
          0
          0
          0
          0.5
          
        </DataArray>
      </PointData>
      <Points>
        <DataArray type="Float32" NumberOfComponents="3" format="ascii">
           0.25 0.05 0
           0.39 0.12 0
           0.28 0.28 0
           0.32 0.38 0
           0.24 0.55 0
           0.45 0.68 0
           0.25 0.88 0
           0.71 0.04 0.5
           0.54 0.14 0.5
           0.74 0.25 0.5
           0.67 0.28 0.5
           0.57 0.45 0.5
           0.74 0.59 0.5
           0.76 0.69 0.5
           0.65 0.87 0.5
           0.75 1.01 0.5
           0.39 1.2 0
           0.48 1.26 0
           0.72 1.4 0.5
           0.66 1.47 0.5
           0.54 1.55 0.5
           0.4 1.69 0
           0.31 1.71 0
           0.69 1.8 0.5
           0.28 1.84 0
           0.7 1.89 0.5
           0.41 1.95 0
           0.44 1.35 0
           0.39 1.11 0
           0.59 0.94 0.5
           
        </DataArray>
      </Points>
      <Cells>
        <DataArray type="Int32" Name="connectivity" format="ascii">
          11 10 8
          13 12 5
          11 8 3
          21 22 24
          8 1 3
          6 29 5
          3 4 5
          15 13 14
          15 14 29
          16 28 6
          2 0 4
          2 1 0
          5 4 6
          20 19 27
          3 2 4
          3 1 2
          0 1 7
          7 1 8
          9 7 8
          9 8 10
          12 9 10
          11 12 10
          13 9 12
          18 15 17
          13 5 14
          5 11 3
          5 12 11
          19 17 27
          16 6 22
          15 29 17
          14 5 29
          25 15 18
          19 18 17
          23 25 18
          21 26 23
          23 19 20
          23 18 19
          23 26 25
          21 24 26
          20 21 23
          20 27 21
          21 27 22
          17 28 16
          29 28 17
          29 6 28
          27 16 22
          27 17 16
          6 24 22
          
        </DataArray>
        <DataArray type="Int32" Name="offsets" format="ascii">
          3 6 9 12 15 18 21 24 27 30 33 36 39 42 45 48 51 54 57 60 63 66 69 72 75 78 81 84 87 90 93 96 99 102 105 108 111 114 117 120 123 126 129 132 135 138 141 144 
        </DataArray>
        <DataArray type="UInt8" Name="types" format="ascii">
          5 5 5 5 5 5 5 5 5 5 5 5 5 5 5 5 5 5 5 5 5 5 5 5 5 5 5 5 5 5 5 5 5 5 5 5 5 5 5 5 5 5 5 5 5 5 5 5 
        </DataArray>
      </Cells>
    </Piece>
  </UnstructuredGrid>
</VTKFile>